512
Atoms. Timestep: 2000
Ar 7.81061 0.181509 1.88902
Ar 2.70372 0.999861 0.473703
Ar 0.649169 1.0915 8.91931
Ar 5.88771 7.6802 9.65394
Ar 2.60298 6.03306 8.88725
Ar 0.144617 9.88033 0.26783
Ar 9.79768 8.33983 8.07354
Ar 4.00002 4.53441 7.75885
Ar 4.64654 1.19227 1.34505
Ar 2.54127 1.69416 1.22032
Ar 6.78558 1.65384 8.94966
Ar 5.41002 6.0826 8.53224
Ar 2.60921 4.9263 3.09473
Ar 0.204745 4.00716 9.75616
Ar 4.36356 2.52514 0.856422
Ar 9.06266 4.58143 7.82728
Ar 8.92244 4.34977 9.78504
Ar 3.35639 3.21884 0.226208
Ar 0.551611 3.0034 1.21198
Ar 2.29467 4.29899 9.52393
Ar 9.75089 9.38871 9.05929
Ar 2.48415 6.91408 9.56372
Ar 2.09564 2.55031 0.593387
Ar 4.85501 4.19422 8.13203
Ar 4.91842 7.26166 8.72538
Ar 7.88219 9.51484 2.65674
Ar 4.58626 8.67563 7.95078
Ar 2.65847 8.51941 3.92003
Ar 1.08384 0.206628 0.0811566
Ar 7.20387 8.00872 3.98557
Ar 8.59754 3.94952 8.69946
Ar 0.731872 2.98327 6.49444
Ar 1.84994 0.70058 7.21461
Ar 5.18523 9.44884 3.72327
Ar 4.57288 0.59538 0.235649
Ar 7.92374 4.57935 0.977459
Ar 5.20161 0.264526 1.41841
Ar 2.38204 5.55078 7.81482
Ar 0.503179 4.61402 8.19268
Ar 6.19085 0.0129215 1.10841
Ar 1.82793 1.9241 3.15773
Ar 0.473209 1.15321 0.578309
Ar 9.71672 4.10531 8.64042
Ar 5.46856 6.50271 0.542794
Ar 4.12627 5.13366 9.86543
Ar 4.65117 4.92516 8.94671
Ar 4.67531 6.42506 1.45966
Ar 1.57749 3.34181 2.83442
Ar 6.40742 2.04843 0.728854
Ar 5.11636 4.02043 0.321262
Ar 7.55006 9.16311 1.29045
Ar 0.73866 1.43725 4.84798
Ar 0.10162 9.75372 1.66127
Ar 5.46335 9.91618 0.294947
Ar 3.85501 0.207291 1.49578
Ar 1.46472 9.2747 2.04105
Ar 1.07242 0.527565 2.14317
Ar 3.33702 1.25077 6.57591
Ar 2.95437 8.49896 0.527366
Ar 6.8971 9.85271 1.86925
Ar 4.73496 0.522817 3.40161
Ar 1.90665 9.32042 3.66999
Ar 1.96371 1.21973 2.23362
Ar 4.617 7.55986 2.0979
Ar 7.82076 9.0936 5.05364
Ar 0.596809 4.14309 4.83541
Ar 3.42327 6.06999 5.67277
Ar 2.64684 2.59532 3.37917
Ar 4.57639 7.0147 3.80178
Ar 3.99285 8.38151 1.992
Ar 7.5714 2.39672 0.25822
Ar 9.53684 4.599 0.970511
Ar 1.03004 3.15799 3.60056
Ar 5.12685 7.99054 4.24803
Ar 6.60303 3.2019 0.367231
Ar 7.06957 7.02089 4.11641
Ar 9.51935 1.34571 4.88928
Ar 3.66184 1.88075 1.71033
Ar 4.07723 7.31085 1.06798
Ar 5.04772 0.395789 2.44356
Ar 0.493426 0.855247 2.99889
Ar 2.01557 4.19102 5.98238
Ar 8.17611 2.93934 6.72971
Ar 3.92742 0.257568 2.75018
Ar 6.70813 0.394772 5.69683
Ar 8.04017 3.91958 0.169071
Ar 9.11226 2.14651 8.45472
Ar 6.7522 3.21035 3.29822
Ar 3.19591 1.0848 4.06067
Ar 0.44106 4.28166 3.2152
Ar 0.755661 1.24835 6.43968
Ar 0.527516 3.84644 7.3363
Ar 3.00266 4.22617 1.92147
Ar 3.17243 0.856469 2.1564
Ar 3.60062 6.56654 3.45693
Ar 0.684434 4.95339 1.34549
Ar 9.18022 3.19219 2.76895
Ar 3.79275 4.10021 4.07282
Ar 4.4402 3.48754 1.29839
Ar 8.63691 6.32047 3.00065
Ar 1.79757 0.175672 4.69441
Ar 2.05366 7.62588 5.42217
Ar 1.49584 2.12598 5.69632
Ar 4.43747 7.36423 6.10159
Ar 6.12647 2.27759 8.57661
Ar 7.72289 2.53628 3.46961
Ar 9.50491 4.97605 3.16794
Ar 3.20557 3.0729 1.50548
Ar 4.97352 2.02122 5.34233
Ar 6.15181 4.08941 5.10305
Ar 8.15232 4.68945 5.33667
Ar 3.64754 5.29493 8.55551
Ar 2.36922 4.1529 7.0074
Ar 2.63072 9.93125 0.951618
Ar 6.87668 0.031503 7.5644
Ar 0.050393 1.96336 5.70404
Ar 3.20573 4.74325 6.16518
Ar 4.14022 4.58677 6.68658
Ar 3.71092 1.89512 5.07628
Ar 3.09071 6.52847 2.35845
Ar 4.67908 1.47807 2.68431
Ar 0.0986612 2.92628 3.90666
Ar 3.69945 7.99971 5.1136
Ar 8.08684 6.68215 7.35131
Ar 3.13969 8.72835 6.23675
Ar 1.7529 9.39834 7.39279
Ar 2.22155 0.909999 3.3677
Ar 2.81287 3.17245 4.60943
Ar 3.17246 7.37124 8.41558
Ar 3.59635 8.91843 3.68155
Ar 8.43581 0.850432 5.39507
Ar 1.34062 3.23925 9.02552
Ar 9.31609 1.30784 7.42186
Ar 2.50268 9.24872 4.81773
Ar 5.16525 0.996816 4.71855
Ar 9.67992 4.40981 5.61682
Ar 3.70516 3.49594 8.40599
Ar 0.621903 9.60019 3.68943
Ar 2.70625 4.28977 8.66705
Ar 1.08709 4.88169 6.68763
Ar 0.466087 5.72467 8.48449
Ar 3.45991 5.47705 3.84298
Ar 2.97357 4.80518 7.59729
Ar 7.24831 2.83879 7.29225
Ar 6.05375 2.11047 2.79474
Ar 8.51124 5.2385 4.06903
Ar 3.69808 5.78523 6.90786
Ar 1.57185 3.94552 4.34684
Ar 4.68548 3.53907 4.89047
Ar 5.42467 4.70553 5.78359
Ar 0.140897 2.21931 9.06992
Ar 2.67383 9.86145 6.7346
Ar 4.49017 1.16498 5.93896
Ar 2.461 5.39232 5.62573
Ar 3.5715 0.185334 7.23563
Ar 1.29039 8.91263 6.57789
Ar 1.23833 4.27737 9.51808
Ar 1.54013 3.64175 6.93162
Ar 2.70809 2.49072 6.78121
Ar 6.14379 9.2661 8.17591
Ar 9.01681 2.54283 7.32275
Ar 0.157083 5.03397 4.9991
Ar 3.63201 4.40637 9.10301
Ar 9.42021 3.37028 6.46097
Ar 3.84451 2.81016 6.13818
Ar 3.593 6.59083 0.3034
Ar 1.68979 3.388 0.0207141
Ar 0.215433 6.7673 0.605539
Ar 0.584309 6.49436 7.5287
Ar 6.14523 5.11288 6.84115
Ar 7.3518 3.75906 9.29457
Ar 1.23605 7.05304 0.0451212
Ar 3.64376 7.01313 9.27619
Ar 1.4891 6.44393 8.1714
Ar 6.56828 4.27778 6.41818
Ar 0.821657 0.20365 6.52331
Ar 1.00472 1.61128 7.59355
Ar 2.76715 1.37058 8.74555
Ar 5.90147 0.0886847 8.64449
Ar 6.88582 0.879475 1.4498
Ar 7.82459 0.0341657 9.19746
Ar 0.937211 8.49817 3.86315
Ar 9.6978 5.2037 8.24164
Ar 1.71257 2.0301 6.7014
Ar 5.51624 1.73698 7.52475
Ar 9.97698 1.93293 0.278657
Ar 6.82468 1.31136 0.0724923
Ar 3.39199 1.12384 9.53487
Ar 2.37001 2.6139 9.18411
Ar 7.56876 2.1431 4.60759
Ar 0.0393657 7.60744 5.2151
Ar 3.91176 6.02988 9.44934
Ar 4.63158 3.51714 7.16205
Ar 5.12573 4.84042 7.11831
Ar 1.54743 2.04652 8.64527
Ar 1.61199 6.16588 9.17276
Ar 7.38861 2.46698 8.62314
Ar 0.136517 8.35542 9.65628
Ar 4.99758 6.07399 9.54822
Ar 2.52704 1.77693 5.61876
Ar 0.245198 4.87196 0.0986961
Ar 0.422629 7.71885 8.53769
Ar 3.92511 4.43762 1.07029
Ar 3.1731 8.29032 9.41216
Ar 5.77719 5.14231 9.4873
Ar 0.986536 8.61724 8.36033
Ar 0.732948 8.94398 1.55222
Ar 2.21431 5.52697 3.85
Ar 3.81176 6.45225 8.40881
Ar 7.46839 6.48182 1.62508
Ar 3.64809 1.16495 0.593853
Ar 2.92481 6.43505 7.48367
Ar 6.761 1.0808 4.55854
Ar 1.97785 1.08913 9.75386
Ar 4.18904 8.54718 9.02427
Ar 1.26225 3.85428 8.18859
Ar 1.63468 1.02417 0.892434
Ar 1.87939 7.62692 3.81194
Ar 4.22618 9.30634 2.91171
Ar 3.73495 7.68351 4.09434
Ar 4.54842 6.98567 9.94736
Ar 0.736428 8.19413 5.84245
Ar 8.55039 6.44455 8.49355
Ar 5.55648 7.01885 2.21401
Ar 6.81604 9.33025 2.90673
Ar 1.53976 9.99713 1.14232
Ar 2.46479 3.68241 3.63283
Ar 3.19957 9.40649 9.06241
Ar 5.72321 5.93731 1.68765
Ar 3.39808 7.53361 6.35927
Ar 1.44995 5.11407 5.05577
Ar 3.85888 5.34656 1.52167
Ar 1.27647 6.14362 1.05455
Ar 9.66447 5.7811 4.07188
Ar 6.38549 6.43582 3.48637
Ar 2.33631 10.0759 2.0805
Ar 8.73141 8.76178 5.31651
Ar 3.40154 8.54122 8.32749
Ar 1.9949 9.30318 8.86743
Ar 5.85281 1.73491 9.47876
Ar 1.55669 6.68823 1.94665
Ar 8.57233 9.89511 5.76436
Ar 1.7904 8.36067 4.58672
Ar 2.64243 1.91399 9.93195
Ar 4.56266 9.00208 9.97746
Ar 1.72437 3.13956 5.12304
Ar 2.02377 8.13293 1.21231
Ar 3.8577 6.30872 4.62243
Ar 6.39944 4.44551 2.75067
Ar 8.18478 7.75468 3.32217
Ar 2.58191 5.40375 1.82834
Ar 2.20858 6.51373 6.36768
Ar 9.68614 8.73703 5.6843
Ar 4.49393 8.35013 6.82743
Ar 4.59247 4.68982 4.73051
Ar 9.92533 4.66692 2.19757
Ar 2.87006 8.95542 7.40155
Ar 1.34939 0.003321 3.0818
Ar 1.33117 7.86682 6.65302
Ar 4.66641 9.08017 4.9652
Ar 7.01035 1.96628 7.60124
Ar 0.961773 5.56862 7.55566
Ar 5.3939 5.01191 3.75664
Ar 9.8603 5.93861 5.29031
Ar 6.51132 4.08798 3.83378
Ar 0.702143 5.30519 4.2152
Ar 9.53009 4.35218 4.42905
Ar 7.10906 5.35021 6.60694
Ar 2.89219 7.37504 3.42121
Ar 4.41958 5.71307 3.77392
Ar 9.49689 0.158215 5.42183
Ar 1.19689 2.88588 7.64922
Ar 2.16459 5.09784 6.57133
Ar 5.79433 9.04953 4.55749
Ar 6.43133 9.77281 3.85647
Ar 7.92721 4.18298 7.56017
Ar 9.42616 6.23713 9.40848
Ar 1.08154 6.97444 6.15285
Ar 2.84077 5.93707 9.97452
Ar 4.87735 6.85326 7.68858
Ar 8.74542 7.6279 7.47954
Ar 9.72645 9.71802 6.81945
Ar 3.04271 7.14035 5.47761
Ar 4.37762 0.323445 6.456
Ar 9.5302 7.50711 9.30104
Ar 9.1001 7.34242 6.29516
Ar 8.81792 8.77395 6.71773
Ar 0.616176 9.15775 4.74738
Ar 3.00833 3.4619 5.94357
Ar 7.93064 0.0257043 6.93226
Ar 0.264537 7.54767 1.59349
Ar 2.23729 6.88424 0.461837
Ar 9.89486 8.35127 6.76235
Ar 2.73471 7.64239 4.57595
Ar 1.35644 2.00923 9.62937
Ar 2.74308 0.180173 9.93602
Ar 1.54425 0.20978 9.03472
Ar 1.7314 8.59965 5.60707
Ar 4.019 5.04856 5.65383
Ar 1.46326 5.12821 8.71123
Ar 2.12202 7.0669 8.56815
Ar 4.61792 0.0443383 9.28082
Ar 1.26944 0.753239 3.8094
Ar 1.89117 9.81815 5.81208
Ar 1.74475 4.68821 7.68741
Ar 8.29862 6.02161 6.59917
Ar 0.589558 9.27462 7.41579
Ar 4.65544 5.64475 7.78331
Ar 5.83271 3.72099 8.40404
Ar 6.84403 6.51989 7.01665
Ar 1.93525 8.05081 7.90547
Ar 0.696708 7.80765 7.48899
Ar 6.91311 0.989677 8.05617
Ar 4.87333 9.46002 1.87251
Ar 4.8575 4.80202 0.918521
Ar 2.97122 0.0532492 8.26924
Ar 1.9655 6.64421 7.3486
Ar 4.09267 9.78918 4.01662
Ar 6.3854 7.97957 4.86292
Ar 1.6431 5.51979 2.46346
Ar 2.91223 8.59265 2.0573
Ar 5.65318 0.168596 7.26881
Ar 5.23716 1.68375 0.383771
Ar 6.90951 1.7137 2.13231
Ar 7.71221 7.95654 8.67137
Ar 6.51381 4.30343 9.08232
Ar 6.29413 7.94239 8.42476
Ar 9.26488 2.33214 6.28665
Ar 8.76701 3.94917 7.06578
Ar 5.33581 1.73933 3.4255
Ar 4.03245 2.01686 3.37977
Ar 8.7198 8.52161 8.35241
Ar 8.04692 4.66793 9.04077
Ar 6.39552 5.66785 0.443516
Ar 9.74068 5.70097 0.203478
Ar 6.96431 9.46072 8.94329
Ar 8.09664 7.18506 5.34082
Ar 8.81102 0.315417 9.61708
Ar 5.88987 0.175364 4.77271
Ar 4.14322 3.74483 9.72117
Ar 8.27478 3.73958 1.39362
Ar 5.68977 2.0801 1.35937
Ar 6.17479 3.37413 9.3947
Ar 8.81442 5.66246 0.792136
Ar 4.88063 5.73602 6.4941
Ar 5.34685 4.1723 9.32139
Ar 6.78884 3.87672 1.52861
Ar 1.94043 4.4283 1.83027
Ar 2.78437 1.61242 2.87896
Ar 1.83692 4.49549 0.415154
Ar 7.83043 7.5828 6.38387
Ar 7.34605 0.375465 2.84604
Ar 9.63632 9.82924 4.1938
Ar 5.85527 1.77017 4.50452
Ar 8.87521 1.5171 3.31392
Ar 9.67897 3.40775 0.383092
Ar 6.05926 3.20212 1.29016
Ar 5.95234 0.832574 3.83387
Ar 9.24436 9.65136 0.71171
Ar 3.61124 2.17981 0.229158
Ar 4.99015 2.66302 1.98117
Ar 6.15604 9.40217 5.37351
Ar 6.6563 6.53758 2.48419
Ar 5.82528 4.31096 1.57663
Ar 1.79912 2.30881 1.87869
Ar 1.85436 6.55286 4.5825
Ar 0.502646 0.400355 4.62677
Ar 7.01384 9.10806 4.32133
Ar 5.20153 8.19997 6.02725
Ar 6.82195 1.76547 3.5714
Ar 0.699053 1.99493 1.46962
Ar 2.78875 2.39607 2.29238
Ar 8.20452 5.32417 9.99907
Ar 9.86156 0.882956 3.89186
Ar 3.07831 7.35732 0.994486
Ar 9.51658 3.07769 1.6984
Ar 8.09129 1.88664 8.1954
Ar 8.43004 2.3618 5.51018
Ar 8.24291 5.31036 2.89627
Ar 8.9568 8.97668 2.95839
Ar 5.2711 7.37707 6.63981
Ar 7.12691 0.551741 3.75662
Ar 7.45681 8.08295 7.64542
Ar 4.68423 2.2471 4.25306
Ar 4.72354 9.69014 8.32776
Ar 2.31984 8.02391 6.76206
Ar 9.54673 5.78071 7.34061
Ar 8.35278 3.82845 5.83355
Ar 7.41359 5.18246 4.85121
Ar 6.10706 7.38018 3.98765
Ar 9.11109 5.21798 5.18247
Ar 0.548696 6.32524 4.627
Ar 5.38425 6.15728 3.97321
Ar 9.59592 6.18678 2.85146
Ar 0.6786 2.80932 5.3751
Ar 4.96445 9.89814 5.62204
Ar 4.93678 2.74232 3.08007
Ar 1.36268 0.793493 8.1465
Ar 3.23189 5.385 4.87196
Ar 9.73298 4.85025 6.91692
Ar 7.72027 0.195635 4.90294
Ar 5.77359 4.92469 8.45709
Ar 9.73433 3.45024 5.22752
Ar 9.86054 0.865855 6.58648
Ar 4.25159 4.07622 5.7905
Ar 7.76598 1.0731 9.17197
Ar 9.71372 6.43407 8.47227
Ar 8.31951 4.08284 4.34719
Ar 5.35137 3.18243 6.4462
Ar 7.01821 7.16586 9.40617
Ar 0.492693 0.48168 7.56212
Ar 8.64291 7.54768 8.73342
Ar 6.16926 8.83768 2.17829
Ar 8.30999 5.0566 6.3723
Ar 9.87512 9.70269 2.64872
Ar 8.07316 1.86691 7.01012
Ar 8.76324 6.27718 5.76489
Ar 5.69981 9.61414 2.56298
Ar 0.620065 0.416795 1.19468
Ar 5.93928 0.613093 10.0046
Ar 6.76166 6.74031 5.13661
Ar 6.64232 4.9625 5.65271
Ar 7.26331 3.96601 5.09215
Ar 8.88588 1.32311 9.17344
Ar 7.38945 6.02019 5.79953
Ar 3.81793 6.88991 7.59197
Ar 7.7138 8.88924 3.41177
Ar 8.95377 9.98557 2.10863
Ar 8.80215 0.673492 8.31073
Ar 9.7819 1.13682 8.46434
Ar 7.81547 0.0967311 8.06057
Ar 6.01899 4.11792 7.27849
Ar 6.8795 0.489697 9.38361
Ar 7.87554 6.32712 0.57916
Ar 7.72951 4.66115 2.0343
Ar 6.99093 2.85092 1.41292
Ar 8.73999 5.48051 8.89655
Ar 8.34532 3.23408 7.85214
Ar 9.50399 8.0528 0.69911
Ar 6.37913 4.39311 0.609892
Ar 7.33265 5.47576 0.703089
Ar 7.62773 6.11032 2.69403
Ar 8.09792 5.59412 1.55493
Ar 1.80255 7.94612 9.18561
Ar 8.72351 8.9784 1.62413
Ar 9.88513 6.90955 3.68282
Ar 6.69913 5.6519 8.82129
Ar 1.06122 1.82901 2.44338
Ar 8.16796 8.36319 2.46584
Ar 7.22739 7.90004 2.07946
Ar 5.26816 7.71225 3.04639
Ar 8.64697 9.6943 8.48848
Ar 8.54875 0.992937 4.12815
Ar 0.64386 2.72043 9.99873
Ar 4.18889 1.23899 4.05286
Ar 3.48832 9.84388 5.93344
Ar 6.51601 9.48048 10.076
Ar 0.13834 0.916401 5.51486
Ar 6.28886 7.05072 0.320696
Ar 6.68652 5.48412 2.07956
Ar 8.90754 4.40687 2.19258
Ar 8.85413 2.88124 0.962559
Ar 6.69374 5.9549 4.43336
Ar 8.36835 7.14946 2.40105
Ar 2.93348 6.38591 4.26139
Ar 4.44749 8.36482 3.54351
Ar 7.7844 9.7936 4.03396
Ar 8.63109 6.56793 1.55366
Ar 5.54645 2.86283 4.11441
Ar 0.740018 3.81834 1.78145
Ar 6.64335 8.18714 0.806588
Ar 9.21285 6.99199 0.663017
Ar 4.63113 5.73139 5.28623
Ar 5.8072 9.0224 9.36444
Ar 10.056 0.562779 2.14215
Ar 8.56314 9.17744 3.9556
Ar 9.38759 5.48773 6.15383
Ar 8.06686 5.93419 4.79303
Ar 9.02835 5.39457 1.93669
Ar 8.49464 6.78763 4.14871
Ar 7.35916 7.13985 2.98884
Ar 1.14284 7.62445 4.58276
Ar 5.73581 7.0694 5.59827
Ar 9.80943 8.7177 1.49359
Ar 9.38365 6.70965 4.67904
Ar 7.23073 5.87716 7.86849
Ar 4.88602 4.07936 3.52717
Ar 5.13504 6.8038 4.7831
Ar 8.54253 6.89504 9.76424
Ar 5.68845 5.5439 4.99231
Ar 6.24346 8.18819 7.02516
Ar 8.3413 9.19108 10.0018
Ar 9.34883 8.01443 4.67716
Ar 1.40469 9.02004 0.556838
Ar 5.60298 5.96736 7.36392
Ar 9.4769 7.3559 8.09143
Ar 9.47811 3.46278 7.77196
Ar 8.17337 5.04293 8.04659
Ar 9.50697 9.98529 8.04114
Ar 6.05255 6.48953 9.50032
Ar 4.29342 2.19441 7.20431
Ar 8.03884 7.48106 0.444524
Ar 6.15041 6.98154 7.94499
Ar 7.69833 6.08712 8.97711
Ar 9.83119 5.75866 1.29506
Ar 4.076 8.41349 0.872878
Ar 7.14388 3.56097 8.2297
Ar 4.60572 7.96515 9.74638
Ar 6.46993 7.02404 1.40512
Ar 7.15683 5.01424 9.64762
Ar 9.03736 6.61228 7.4592
Ar 9.81577 7.45654 7.18032
512
Atoms. Timestep: 2100
Ar 8.1853 0.137184 1.68416
Ar 2.65574 0.495523 0.35445
Ar 1.02491 1.48559 8.91915
Ar 5.98079 7.55278 9.61219
Ar 2.59244 5.84821 9.40174
Ar 0.384249 9.85376 0.133736
Ar 9.33756 8.74609 7.73369
Ar 3.91805 4.66335 7.78014
Ar 4.49136 1.70057 1.27139
Ar 3.09664 2.21883 1.02661
Ar 6.94707 1.85014 9.10228
Ar 5.39515 6.02712 8.18451
Ar 2.70015 5.03415 2.66945
Ar 9.94164 3.84731 9.78842
Ar 4.15783 2.68406 0.995844
Ar 8.75349 4.73806 7.86092
Ar 8.85526 4.38275 9.95207
Ar 2.49958 3.39032 0.601567
Ar 0.56269 2.66776 0.834466
Ar 2.22793 4.44472 9.63447
Ar 10.0697 9.83804 8.169
Ar 3.27663 6.75776 9.37659
Ar 1.93421 2.47367 0.728378
Ar 5.00783 3.94458 7.60062
Ar 5.08011 7.7311 8.71096
Ar 7.45904 9.34853 2.27455
Ar 4.19489 8.7772 7.42415
Ar 2.13947 8.15399 3.54821
Ar 1.42979 0.775229 0.172639
Ar 6.7409 7.5377 3.74735
Ar 8.55755 3.83901 8.81032
Ar 0.30487 2.22262 6.62826
Ar 1.58528 0.984454 6.89743
Ar 5.00223 9.90198 4.05225
Ar 4.85166 0.726144 0.113658
Ar 7.88852 4.72384 0.603028
Ar 5.44556 0.496132 1.0801
Ar 1.82733 5.75992 8.11007
Ar 0.217976 4.47649 7.87938
Ar 6.47386 9.80825 0.880436
Ar 1.62584 1.77437 3.31042
Ar 0.431612 1.30116 0.0464312
Ar 9.26075 4.56743 8.98612
Ar 5.58973 5.89399 0.659815
Ar 4.64277 4.99988 0.0498596
Ar 4.48651 4.57762 9.03129
Ar 4.75677 6.18138 1.64211
Ar 1.81486 2.97239 2.81055
Ar 6.31428 1.67463 0.9542
Ar 5.373 4.06193 0.411385
Ar 7.06175 9.12575 1.29181
Ar 1.22105 1.66685 4.7488
Ar 9.87637 9.52314 2.04586
Ar 5.9958 9.70354 9.93918
Ar 4.21358 10.0453 1.29411
Ar 2.64542 9.90792 2.49445
Ar 1.07172 0.646765 1.8729
Ar 3.18212 2.17233 6.8419
Ar 3.02325 8.8214 0.549531
Ar 6.32808 9.05951 2.4203
Ar 4.9535 0.510416 3.2383
Ar 1.79158 9.24296 3.84446
Ar 1.87421 1.34188 2.35112
Ar 3.87355 7.04182 2.11843
Ar 8.08134 9.32224 4.38065
Ar 0.249885 4.04907 4.6378
Ar 3.92642 5.95442 6.00694
Ar 2.73804 2.14883 3.22106
Ar 4.77789 7.26533 3.5887
Ar 3.93796 8.91251 1.90726
Ar 7.57869 2.53908 0.117696
Ar 0.343528 5.01907 0.970059
Ar 1.36869 3.04381 3.65508
Ar 5.17333 7.91227 4.29235
Ar 6.59285 2.97181 0.42812
Ar 7.21345 6.33752 3.94697
Ar 9.46226 1.61991 5.03938
Ar 3.59996 2.20655 2.07977
Ar 4.42295 7.40952 1.00721
Ar 4.79887 0.0593216 2.07439
Ar 0.705709 1.08985 2.78367
Ar 1.50947 4.27983 6.01864
Ar 8.68822 3.14647 6.73857
Ar 3.87252 0.540494 2.95702
Ar 6.01704 0.433762 6.39065
Ar 8.16773 3.61316 0.299551
Ar 8.86803 1.96563 8.51007
Ar 5.72952 3.79958 2.08238
Ar 2.94551 0.743215 3.54552
Ar 0.690092 4.8495 3.1025
Ar 0.334263 1.2406 7.02853
Ar 0.0120392 3.4413 7.44947
Ar 3.19824 4.86112 1.74319
Ar 3.66401 1.26629 1.54489
Ar 3.95216 6.37055 3.22834
Ar 0.955967 4.26721 1.70538
Ar 9.06417 2.26671 2.57387
Ar 3.69854 4.26773 4.687
Ar 4.72122 3.62437 1.30862
Ar 9.01519 6.38194 3.79784
Ar 2.24462 0.286097 4.52352
Ar 2.13842 7.70423 5.86111
Ar 1.1022 2.20757 5.75651
Ar 4.60414 6.93455 5.90139
Ar 5.35568 2.43688 8.68013
Ar 8.35723 2.46068 3.45393
Ar 9.24614 4.84937 3.03206
Ar 3.53148 3.41949 1.69169
Ar 4.81736 2.51805 5.48336
Ar 6.29426 3.80257 5.23829
Ar 8.21113 5.21409 5.12144
Ar 3.37375 5.00653 8.8295
Ar 3.04617 4.00417 7.40904
Ar 2.8049 9.71685 1.07097
Ar 7.00716 0.0200176 6.83734
Ar 0.0664761 1.39038 5.85863
Ar 2.47737 4.74573 6.69921
Ar 4.13599 4.27318 6.5422
Ar 3.93905 1.69296 4.73078
Ar 2.82103 6.20175 3.06262
Ar 4.44569 1.48582 2.52546
Ar 9.38019 2.97075 3.6644
Ar 3.57725 9.14714 5.06287
Ar 7.44807 7.20719 7.60424
Ar 3.21051 9.00686 6.67781
Ar 1.7101 8.86919 7.09262
Ar 1.97405 0.577439 3.3265
Ar 2.54493 2.89927 4.65027
Ar 3.02951 7.32042 8.01456
Ar 3.29398 9.30167 3.74604
Ar 7.96439 0.637184 5.36107
Ar 0.850404 3.37375 9.04535
Ar 8.4918 1.15402 7.69803
Ar 3.00931 9.62595 5.84184
Ar 5.16417 1.22784 5.89417
Ar 9.19052 4.87612 5.39404
Ar 4.04797 3.91266 8.43357
Ar 0.340468 9.22169 4.03695
Ar 2.56699 3.87372 8.79536
Ar 0.990464 4.24503 7.08071
Ar 0.609538 5.83312 9.27119
Ar 2.93684 5.22771 4.08385
Ar 2.76854 5.37319 7.87822
Ar 7.10059 2.67277 7.66323
Ar 6.09465 2.60697 2.59406
Ar 8.31259 5.34152 3.87821
Ar 3.48183 5.23781 6.78427
Ar 1.42826 4.16949 4.16206
Ar 4.77755 3.1555 4.6025
Ar 5.31866 4.62438 6.36197
Ar 10.0207 1.79213 8.94023
Ar 2.2735 10.0442 6.46425
Ar 4.09438 1.81542 5.99937
Ar 2.52243 5.68282 5.54018
Ar 3.38048 10.0669 6.71151
Ar 0.833305 9.02598 6.18011
Ar 0.614968 4.59513 9.05977
Ar 1.86981 3.21399 7.22433
Ar 2.39949 2.42755 5.76908
Ar 6.38153 9.43164 7.60431
Ar 9.7716 2.385 7.65993
Ar 0.493037 4.7028 5.66887
Ar 3.38113 4.17307 9.48104
Ar 9.4237 3.36964 6.01988
Ar 3.49223 3.08312 6.38721
Ar 3.29802 6.44444 0.307009
Ar 1.72282 3.31516 9.98037
Ar 0.231283 6.76338 1.01312
Ar 9.98504 6.42925 7.33909
Ar 6.08815 5.57754 6.90218
Ar 7.46837 3.59803 9.31589
Ar 1.15469 6.52943 0.431516
Ar 3.87492 7.35911 0.0443259
Ar 1.1525 6.53176 7.93782
Ar 6.93718 3.82457 6.58754
Ar 0.587809 0.134498 6.47725
Ar 0.426169 1.59902 8.08136
Ar 2.37383 1.2549 8.17597
Ar 5.66741 0.000825875 8.60628
Ar 6.8381 0.966105 1.42557
Ar 8.00797 9.59074 9.19443
Ar 1.13682 8.25691 3.94412
Ar 9.55552 5.47541 8.40824
Ar 1.48956 2.27426 6.85014
Ar 4.6707 1.684 8.09872
Ar 9.6124 2.54857 1.12318
Ar 7.46597 1.29369 0.222401
Ar 3.17792 0.743213 9.36721
Ar 2.75447 2.87308 9.73206
Ar 7.60506 1.43003 4.00594
Ar 0.379929 7.00834 5.83158
Ar 4.0452 5.98183 9.2454
Ar 4.00547 3.31553 7.50161
Ar 4.89355 5.00893 7.32234
Ar 1.59526 2.62333 8.16489
Ar 1.60485 6.22205 9.43806
Ar 6.89738 2.94594 8.67903
Ar 0.181578 9.28196 9.12939
Ar 5.34684 5.84489 9.70173
Ar 3.05183 1.4634 5.1558
Ar 0.92901 5.19295 10.0382
Ar 0.711904 7.11997 9.29557
Ar 4.02327 4.4162 0.650506
Ar 3.16887 8.08425 9.47324
Ar 5.8743 4.91525 0.0333766
Ar 0.594481 8.34825 8.94528
Ar 1.53856 8.43117 1.66568
Ar 1.75639 6.05589 4.37687
Ar 3.24239 6.08171 8.45244
Ar 7.44837 7.26126 1.15488
Ar 3.72853 0.40791 0.261124
Ar 3.10526 6.51102 7.42326
Ar 6.39763 0.940962 5.49251
Ar 2.1608 1.11357 9.41293
Ar 4.16146 8.42754 8.77827
Ar 1.28126 3.77955 7.91929
Ar 1.83342 1.26399 1.17799
Ar 1.60428 7.24287 3.70091
Ar 4.20663 9.66826 3.08129
Ar 3.70564 7.75641 3.82428
Ar 5.01596 6.73051 0.191391
Ar 0.804278 7.8719 5.59966
Ar 8.3257 6.46546 8.54353
Ar 5.45165 7.29377 2.64075
Ar 6.74758 8.84012 3.3661
Ar 1.81904 0.166416 0.88835
Ar 1.72028 4.05999 3.02371
Ar 3.69471 9.39535 8.37335
Ar 5.7829 6.20372 1.77064
Ar 3.53205 7.38964 6.44904
Ar 1.58057 5.31435 5.13579
Ar 3.78803 5.50981 0.866848
Ar 1.48655 5.68811 1.3935
Ar 10.0623 5.4769 4.39847
Ar 6.0292 5.71266 2.80449
Ar 2.71265 0.523746 1.51314
Ar 8.50562 8.24993 5.29893
Ar 3.22835 8.37526 8.33014
Ar 2.4343 9.30603 8.49761
Ar 5.9221 1.97332 9.64678
Ar 2.27432 6.55145 1.85493
Ar 8.33239 9.76687 5.97593
Ar 2.33196 9.04038 4.96814
Ar 2.65293 1.74486 0.0867216
Ar 5.04406 8.64239 0.540401
Ar 1.52761 3.25792 5.15108
Ar 2.1164 7.8356 1.04443
Ar 4.11416 6.75025 4.2738
Ar 7.05004 4.33941 2.03939
Ar 8.30142 7.4599 3.22793
Ar 2.95657 5.8301 1.32947
Ar 3.00166 6.48597 6.37265
Ar 9.81381 8.60666 5.67945
Ar 4.40532 7.87229 6.49711
Ar 4.68463 4.44146 4.943
Ar 0.110983 4.63205 2.35858
Ar 2.98755 9.24473 7.64271
Ar 1.20629 9.98891 2.8386
Ar 1.18867 7.87786 6.52619
Ar 4.8538 8.73015 5.01738
Ar 6.16526 1.53571 7.99691
Ar 0.814551 5.595 7.48076
Ar 5.71926 4.34649 3.86692
Ar 0.0840684 5.93264 5.52023
Ar 6.82103 4.48046 4.38353
Ar 1.06519 5.24361 4.18135
Ar 9.24944 4.72794 4.31207
Ar 7.16935 5.48797 6.48766
Ar 2.3599 7.59154 2.65234
Ar 4.87528 5.19861 3.73767
Ar 9.20189 0.186106 5.58908
Ar 0.74537 2.49485 7.5741
Ar 1.86785 5.60414 6.96259
Ar 5.77591 8.91025 4.33344
Ar 6.31967 10.0308 3.74547
Ar 7.82007 4.44566 7.20152
Ar 8.87516 6.454 9.88939
Ar 1.42107 6.82506 5.63732
Ar 2.12186 6.02968 0.37225
Ar 4.38543 6.63611 8.54851
Ar 8.97382 7.85672 7.22162
Ar 9.87969 9.62503 6.13386
Ar 3.6135 7.72493 5.28132
Ar 4.7364 0.188205 6.78851
Ar 9.55749 7.66729 9.58728
Ar 9.03424 7.91645 6.10204
Ar 8.77772 9.00891 6.54879
Ar 0.548084 8.73871 5.1032
Ar 3.14295 4.05472 6.25679
Ar 8.04611 10.0699 6.94237
Ar 0.818845 7.29702 1.65086
Ar 2.54662 7.13428 0.50772
Ar 9.97465 8.46546 6.76749
Ar 2.65447 7.88443 4.59608
Ar 1.45837 1.80835 0.0900656
Ar 3.1113 9.64487 10.0577
Ar 1.37216 0.0629665 9.0745
Ar 2.0033 8.7398 5.89418
Ar 3.60935 4.97738 5.41412
Ar 1.54794 5.23196 9.04474
Ar 2.0797 6.92636 8.36446
Ar 4.58873 9.99694 9.41974
Ar 1.17892 0.957004 3.90533
Ar 1.49389 9.77489 5.84634
Ar 1.93806 4.66067 7.99332
Ar 8.3034 6.02692 6.75048
Ar 0.545049 9.40465 7.31981
Ar 4.26503 5.69848 8.05277
Ar 5.98183 3.2197 8.21817
Ar 6.63056 6.43812 6.64712
Ar 1.79158 7.85664 7.33594
Ar 0.599864 8.27389 7.58146
Ar 6.64827 0.507649 8.23432
Ar 5.71451 9.29893 1.38715
Ar 4.7889 5.25914 1.00157
Ar 3.26856 0.304135 8.08791
Ar 2.08711 6.83037 6.61339
Ar 3.90556 0.222969 3.95923
Ar 5.9687 8.35135 5.23572
Ar 1.51895 5.72466 2.6996
Ar 3.43777 8.47879 2.93785
Ar 5.51509 0.186496 7.56435
Ar 5.32339 1.64833 0.521514
Ar 7.13566 2.41706 2.32081
Ar 7.72677 8.06402 8.56054
Ar 6.56171 4.7432 8.60283
Ar 6.65859 7.95641 8.34127
Ar 9.3997 2.2496 6.306
Ar 8.76752 4.21145 6.86169
Ar 5.33778 1.56376 3.15364
Ar 3.87944 1.41475 3.71795
Ar 8.79451 8.26236 8.52759
Ar 7.49643 4.60498 9.08735
Ar 6.35203 5.97463 9.95966
Ar 9.47205 5.93327 0.738079
Ar 6.73832 9.68459 8.95029
Ar 8.21937 6.74818 5.42029
Ar 8.81516 0.00450216 9.8418
Ar 6.05172 10.0357 4.80691
Ar 4.57198 3.19406 9.72156
Ar 8.28144 3.90209 1.40382
Ar 5.2809 1.0369 2.07595
Ar 6.28713 3.39417 9.48677
Ar 8.97277 5.18775 1.45736
Ar 4.86076 5.69605 6.61268
Ar 5.55709 4.29004 9.24814
Ar 7.30087 3.83987 1.01631
Ar 2.09052 3.63015 1.98227
Ar 3.10108 1.29056 2.7343
Ar 1.22473 4.22438 0.25866
Ar 8.25936 7.23639 6.49444
Ar 7.63056 0.321571 2.87742
Ar 9.50441 0.355736 4.13986
Ar 5.95143 2.11076 4.68133
Ar 9.43729 1.83765 4.0426
Ar 9.13822 3.94846 0.957143
Ar 5.87368 2.91059 1.2518
Ar 5.47536 0.903627 4.60708
Ar 9.22307 9.7485 1.2306
Ar 3.81725 1.5663 0.370013
Ar 4.68796 2.50921 2.0902
Ar 6.9442 9.11034 5.66029
Ar 6.60903 6.92784 1.97762
Ar 5.54596 4.54677 1.30493
Ar 1.66933 2.5546 1.66062
Ar 2.36178 6.93432 4.9992
Ar 1.31182 9.74358 4.76322
Ar 6.74914 9.19163 4.52941
Ar 5.16293 7.96381 5.92505
Ar 6.90417 1.89738 3.40924
Ar 0.801765 1.59768 0.988553
Ar 2.58832 2.32881 2.13239
Ar 7.84406 5.58273 10.0253
Ar 0.166685 1.062 3.70445
Ar 3.34186 7.58203 1.31099
Ar 9.7675 3.50566 1.77419
Ar 7.75615 1.95003 8.05111
Ar 8.58938 2.30791 4.75097
Ar 8.13998 5.4634 2.8011
Ar 9.41685 8.64311 2.59778
Ar 5.85173 7.30893 7.27495
Ar 6.70053 0.971185 4.06244
Ar 7.70848 8.3977 7.39883
Ar 4.88212 1.86985 4.27762
Ar 4.53435 9.92919 7.84849
Ar 2.75734 8.24687 7.31757
Ar 9.91069 5.16668 7.21703
Ar 7.87891 3.95664 6.29702
Ar 7.41964 5.3437 4.44718
Ar 5.82871 7.0798 3.58959
Ar 9.14134 5.83427 4.86924
Ar 0.92097 6.4935 4.50064
Ar 5.54801 6.19716 3.9768
Ar 9.80882 5.62555 2.51573
Ar 0.371028 2.79899 4.7045
Ar 5.25221 9.78954 5.63097
Ar 4.23387 2.394 3.30442
Ar 1.51636 0.54446 7.96387
Ar 3.09352 6.05267 4.79797
Ar 9.8459 4.18117 6.78669
Ar 7.16376 0.162828 4.81333
Ar 5.41699 4.92754 8.33738
Ar 9.21746 3.72177 4.47334
Ar 8.85909 0.451614 6.64169
Ar 3.95461 3.31181 5.34498
Ar 7.84595 0.506725 8.70424
Ar 9.41964 6.87594 8.76333
Ar 8.46775 3.54797 5.35916
Ar 5.38706 3.51513 6.05994
Ar 7.27295 7.27426 9.26743
Ar 0.449715 0.394179 7.63123
Ar 8.56884 7.35919 9.37032
Ar 5.82549 8.16379 2.26125
Ar 8.3118 5.00742 6.21033
Ar 0.103413 0.0821772 3.44371
Ar 8.11322 2.14012 7.13503
Ar 9.36125 6.94297 5.81799
Ar 5.79904 10.0365 2.57355
Ar 0.697861 0.386601 0.943694
Ar 6.23115 0.79444 9.82918
Ar 6.84845 7.04976 4.80372
Ar 6.31361 5.29309 5.821
Ar 7.19152 4.7041 5.56156
Ar 9.76547 0.888626 9.62852
Ar 7.43448 5.80385 5.54893
Ar 4.13776 7.35742 7.53965
Ar 7.85616 8.61415 3.28326
Ar 9.09182 0.130488 2.50179
Ar 9.25088 0.166273 8.6958
Ar 9.46223 1.05618 8.04301
Ar 8.02765 9.60152 8.05677
Ar 6.17657 4.22868 7.67656
Ar 7.22813 0.190969 9.88092
Ar 7.50181 6.52888 0.53063
Ar 7.91668 4.83785 1.68613
Ar 7.78167 2.92508 1.31419
Ar 8.51616 5.5649 9.109
Ar 8.71935 2.80509 7.91695
Ar 0.361453 7.55416 0.194801
Ar 6.46609 4.28422 0.501183
Ar 6.67164 5.57814 0.79622
Ar 7.71014 6.22696 2.17369
Ar 7.90351 5.73003 1.16749
Ar 2.21218 8.25984 8.39612
Ar 8.22878 9.12664 1.40821
Ar 0.167484 6.24415 3.32113
Ar 6.23718 5.67985 8.90085
Ar 0.64587 2.19164 2.38909
Ar 8.41753 8.25203 2.32127
Ar 7.4284 8.17706 1.95439
Ar 4.44018 7.9486 2.59941
Ar 9.17257 9.10833 9.04299
Ar 8.82692 1.08409 4.34673
Ar 0.852449 2.38941 9.66274
Ar 4.42286 0.514174 5.08066
Ar 4.09479 9.42036 6.07464
Ar 6.89668 8.59897 9.50632
Ar 0.549391 0.724228 5.04999
Ar 6.58465 7.00317 0.312323
Ar 6.73435 5.47709 1.95899
Ar 8.99759 4.43593 2.16568
Ar 8.66823 2.60687 0.309379
Ar 6.52966 6.07432 4.80431
Ar 8.11094 7.30879 2.01479
Ar 3.08822 6.87446 4.13687
Ar 4.27592 8.6532 3.71186
Ar 7.32783 9.68746 3.66714
Ar 8.65491 6.48876 1.17831
Ar 5.86852 2.9486 4.03602
Ar 0.86674 3.57705 2.69786
Ar 6.00544 8.26293 0.504882
Ar 9.35142 7.09279 0.472141
Ar 4.52685 5.91872 5.08528
Ar 5.51251 8.99959 9.3354
Ar 9.79229 0.65062 1.71748
Ar 8.96077 9.42433 3.42257
Ar 9.20637 5.69271 5.945
Ar 8.06043 6.28088 4.51185
Ar 8.86516 6.16432 2.25482
Ar 8.09289 7.31653 4.23758
Ar 7.24521 7.26317 2.87399
Ar 1.71766 8.01925 4.93335
Ar 5.91445 6.99434 5.53736
Ar 9.19427 8.28486 1.59581
Ar 9.35134 6.87409 4.67908
Ar 7.10696 6.09637 7.66883
Ar 4.87622 3.33292 3.42876
Ar 4.95799 7.11768 4.90037
Ar 7.92187 6.40064 9.53604
Ar 5.56796 5.07143 4.78969
Ar 5.97694 8.39006 6.90844
Ar 8.55339 8.99011 0.350774
Ar 9.62722 9.2129 4.64051
Ar 2.01867 9.02822 0.600119
Ar 5.29376 6.46556 7.07235
Ar 9.76447 7.53406 7.89759
Ar 9.22088 3.91528 7.86093
Ar 7.68494 5.22066 8.07137
Ar 9.51227 9.78805 7.17463
Ar 6.02266 6.64339 9.17975
Ar 4.54971 2.50779 6.93715
Ar 8.40796 7.65402 0.836629
Ar 6.30838 6.8737 8.15178
Ar 7.35315 5.6143 8.91082
Ar 0.0788531 5.92413 1.54228
Ar 4.15365 8.5204 0.897705
Ar 7.25074 3.87051 8.17867
Ar 4.71074 8.07539 9.70245
Ar 6.39109 7.69054 1.35746
Ar 6.81656 5.09009 9.82225
Ar 8.90882 6.73981 7.30032
Ar 10.0357 7.33998 6.86426
512
Atoms. Timestep: 2200
Ar 8.30966 9.91578 1.90544
Ar 2.57364 0.758907 0.431748
Ar 1.37766 1.20584 8.64947
Ar 6.0884 7.92226 9.54293
Ar 3.06613 4.98619 9.21974
Ar 0.632865 9.39084 9.85565
Ar 9.15104 8.92695 7.80481
Ar 3.71535 4.70645 7.45285
Ar 4.83257 1.69066 1.23549
Ar 3.66291 2.76883 1.15402
Ar 7.3497 1.57398 9.22885
Ar 4.68022 6.19166 7.87305
Ar 2.22646 6.12407 2.449
Ar 9.56186 4.09269 0.0661608
Ar 4.40837 2.14067 0.407868
Ar 8.12519 5.76986 7.97588
Ar 8.43256 4.44036 9.94138
Ar 2.41222 4.07127 1.055
Ar 0.935236 2.63011 0.312625
Ar 1.97399 4.15783 0.0134033
Ar 0.253134 9.50898 7.67004
Ar 3.39007 7.41351 9.16851
Ar 2.15143 2.55542 0.752907
Ar 4.93313 3.33292 7.30485
Ar 5.31377 7.73777 7.88111
Ar 7.62099 9.31681 2.48262
Ar 3.87236 9.20471 7.44362
Ar 2.32981 7.62023 3.62642
Ar 1.54479 0.658265 0.144211
Ar 6.81759 7.17136 3.346
Ar 8.25139 2.97063 8.77328
Ar 0.307618 2.25022 6.94301
Ar 0.749736 1.43798 7.28472
Ar 4.80983 0.302664 4.61007
Ar 5.08737 0.781246 9.88952
Ar 7.70384 3.97902 0.585266
Ar 5.57259 0.853656 0.735124
Ar 2.15475 5.58138 8.4315
Ar 0.0332883 4.33894 7.86903
Ar 6.58318 0.370044 1.15944
Ar 1.52197 1.77955 3.88758
Ar 0.553966 1.29927 9.92071
Ar 8.70345 4.9161 8.49064
Ar 5.68093 6.14326 0.840515
Ar 4.53046 5.37581 0.267229
Ar 3.98971 4.36393 9.30781
Ar 4.20781 6.65419 1.38292
Ar 1.35959 2.43682 2.61107
Ar 6.45225 2.07312 1.03731
Ar 4.69117 4.38271 0.0011866
Ar 6.67038 8.46969 1.40713
Ar 1.149 2.05327 4.7666
Ar 9.80617 9.58745 2.2199
Ar 5.64751 9.93906 9.88382
Ar 4.2102 9.24985 0.554542
Ar 2.61312 9.96848 2.44585
Ar 1.24384 0.831435 1.28109
Ar 3.38566 2.55271 6.85774
Ar 2.32998 8.0035 0.301558
Ar 6.51485 8.88341 2.77567
Ar 5.34188 0.721464 3.17215
Ar 2.2118 8.64839 3.80533
Ar 1.89431 1.21744 2.16536
Ar 3.38668 6.67707 2.30647
Ar 8.6441 9.27622 3.74069
Ar 9.77415 3.92222 4.60265
Ar 4.12832 6.09285 5.55281
Ar 2.25247 1.9155 3.14969
Ar 4.72589 7.63052 3.40723
Ar 3.48997 9.22301 2.10585
Ar 7.45721 2.35182 0.440724
Ar 1.11914 4.86163 1.13482
Ar 1.26247 3.29054 3.91663
Ar 5.43919 7.9687 4.32872
Ar 6.76133 3.3042 0.209143
Ar 6.9814 5.78616 3.57788
Ar 9.31238 1.58854 5.49708
Ar 3.46195 2.55345 2.19865
Ar 4.82662 7.45547 1.56081
Ar 4.65616 9.54157 1.92541
Ar 0.718094 1.13256 2.8067
Ar 1.82192 3.94807 5.52986
Ar 8.89559 3.25305 6.72808