temp.atoms (by write_lammps_atoms)

4 atoms
2 atom types
3 bonds
2 bond types
2 angles
1 angle types
1 dihedrals
1 dihedral types

0.0 10.000000  xlo xhi
0.0 10.000000  ylo yhi
0.0 10.000000  zlo zhi

Atoms

     1   1   2 0.01 0.0 0.0 0.0 # H1
     2   1   1 -0.01 1.0 0.0 0.0 # C1
     3   1   1 -0.01 2.0 0.0 0.0 # C1
     4   1   2 0.01 3.0 0.0 0.0 # H1

Velocities

     1 0 0 0
     2 0 0 0
     3 0 0 0
     4 0 0 0

Masses

     1 12.011 # C1
     2 1.008 # H1

Bonds

       1      1      3      2 # C1-C1
       2      2      2      1 # C1-H1
       3      2      4      3 # C1-H1

Angles

       1      1      1      2      3 # H1-C1-C1
       2      1      2      3      4 # H1-C1-C1

Dihedrals

       1      1      1      2      3      4 # H1-C1-C1-H1
